Title: * Z:\z\--mega--\converter-designs\bla\bla.asc
Date: Mon Jul 09 22:44:48 2018
Plotname: Transient Analysis
Flags: real forward
No. Variables: 73
No. Points:         2153
Offset:   4.0200000000000001e-005
Command: Linear Technology Corporation LTspice XVII
Variables:
	0	time	time
	1	V(i+)	voltage
	2	V(p+)	voltage
	3	V(i-)	voltage
	4	V(p-)	voltage
	5	V(o+)	voltage
	6	V(n001)	voltage
	7	V(o-)	voltage
	8	V(s3)	voltage
	9	V(s1)	voltage
	10	V(in)	voltage
	11	V(g1)	voltage
	12	V(drv1)	voltage
	13	V(g2)	voltage
	14	V(drv2)	voltage
	15	V(s2)	voltage
	16	V(g3)	voltage
	17	V(drv3)	voltage
	18	V(g4)	voltage
	19	V(drv4)	voltage
	20	V(s4)	voltage
	21	V(n002)	voltage
	22	V(n004)	voltage
	23	V(n003)	voltage
	24	V(n005)	voltage
	25	Id(M4)	device_current
	26	Ig(M4)	device_current
	27	Is(M4)	device_current
	28	Id(M3)	device_current
	29	Ig(M3)	device_current
	30	Is(M3)	device_current
	31	Id(M2)	device_current
	32	Ig(M2)	device_current
	33	Is(M2)	device_current
	34	Id(M1)	device_current
	35	Ig(M1)	device_current
	36	Is(M1)	device_current
	37	I(Cin)	device_current
	38	I(C2)	device_current
	39	I(C1)	device_current
	40	I(Dg4)	device_current
	41	I(Dg2)	device_current
	42	I(Dg3)	device_current
	43	I(Dg1)	device_current
	44	I(Dr4)	device_current
	45	I(Dr2)	device_current
	46	I(Dr3)	device_current
	47	I(Dr1)	device_current
	48	I(Ltx2)	device_current
	49	I(Ltx1)	device_current
	50	I(L1)	device_current
	51	I(Rgoff4)	device_current
	52	I(Rgoff3)	device_current
	53	I(Rgoff2)	device_current
	54	I(Rgoff1)	device_current
	55	I(Rs4)	device_current
	56	I(Rs3)	device_current
	57	I(Rpd4)	device_current
	58	I(Rpd3)	device_current
	59	I(Rg4)	device_current
	60	I(Rg3)	device_current
	61	I(Rpd2)	device_current
	62	I(Rpd1)	device_current
	63	I(Rg2)	device_current
	64	I(Rg1)	device_current
	65	I(Rs1)	device_current
	66	I(Rs2)	device_current
	67	I(Vg4)	device_current
	68	I(Vg3)	device_current
	69	I(Vg2)	device_current
	70	I(Vin)	device_current
	71	I(Vg1)	device_current
	72	I(Vout)	device_current
Values:
0		0.000000000000000e+000
	2.468139057324080e+002
	2.870494385630397e+002
	3.186103606303621e+000
	5.398023679892037e+001
	2.494829354273190e+001
	2.400000000000000e+001
	-9.482935427319017e-001
	3.186094266694739e+000
	2.468139150720169e+002
	2.500000000000000e+002
	2.567825384000597e+002
	2.568139150720169e+002
	6.718859928851333e-004
	7.985172384428196e-010
	7.981594885771497e-010
	3.186766153920547e+000
	3.186094266693633e+000
	9.968632668031146e+000
	1.000000934040707e+001
	9.340407046523334e-006
	2.568139150720169e+002
	3.186094266693633e+000
	7.985181734979957e-010
	1.000000934040703e+001
	9.340407046523160e+000
	5.278472142458632e-003
	-9.345685518665619e+000
	7.981640593694851e-004
	-1.344446343121285e-004
	-6.637194250573566e-004
	7.981592417229596e-004
	-1.344442274710714e-004
	-6.637150142518881e-004
	9.340407058168619e+000
	5.278472058441544e-003
	-9.345685530227062e+000
	0.000000000000000e+000
	3.236103116588396e-006
	-9.339608882078096e+000
	-3.840391765813423e-014
	9.350551209476941e-016
	9.350580126580895e-016
	-3.840391619749669e-014
	-2.495829354273188e-011
	-2.495829354273188e-011
	8.368590751076135e+001
	8.368590751075362e+001
	8.368591074695533e+001
	-9.339608882084541e+000
	9.339608882077354e+000
	-3.730349362740526e-014
	4.440892098500626e-016
	9.350551760780020e-016
	0.000000000000000e+000
	-9.340407046523334e+000
	-7.981594885771498e-004
	9.968623327624099e-004
	6.718872258080211e-008
	-6.275334475184025e-003
	1.343774453827607e-004
	6.718851947256447e-008
	9.968623328042809e-004
	1.343770388735790e-004
	-6.275334391443722e-003
	9.339608880054584e+000
	9.339608882275030e+000
	-6.275334474969085e-003
	1.343774450131869e-004
	1.343770309657067e-004
	-9.341205242231354e+000
	-6.275334212926067e-003
	8.368590751073403e+001
1		4.586668351914502e-010
	2.468204532897666e+002
	2.874716786259168e+002
	3.179556029063910e+000
	5.440344981200502e+001
	2.494823959017889e+001
	2.400000000000000e+001
	-9.482395901788909e-001
	3.179546708723283e+000
	2.468204626101072e+002
	2.500000000000000e+002
	2.567885449299769e+002
	2.568204626101072e+002
	6.806988935643390e-004
	8.046165539399297e-010
	8.047339546070122e-010
	3.180227408859383e+000
	3.179546708722036e+000
	9.968091640506945e+000
	1.000000932114547e+001
	9.321145363467534e-006
	2.568204626101071e+002
	3.179546708722037e+000
	8.046175013055381e-010
	1.000000932114543e+001
	9.321145363467348e+000
	5.386727895807297e-003
	-9.326532091363156e+000
	8.047361720795657e-004
	-1.362080974621964e-004
	-6.685280746173693e-004
	8.047337073653955e-004
	-1.362076875311494e-004
	-6.685260198342461e-004
	9.321145370847910e+000
	5.386727794359558e-003
	-9.326532098642270e+000
	0.000000000000000e+000
	2.963898716679125e-006
	-9.320340626767120e+000
	-3.900646020007181e-014
	9.473656272219313e-016
	9.473684672862717e-016
	-3.900645995299752e-014
	-2.495823959017889e-011
	-2.495823959017889e-011
	8.351152627056490e+001
	8.351152627056445e+001
	8.351152923448116e+001
	-9.320340626765651e+000
	9.320340626765447e+000
	-4.085620730620576e-014
	1.332267629550188e-015
	9.473656084126709e-016
	-5.684341886080802e-014
	-9.321145363467535e+000
	-8.047339546070122e-004
	9.968082319361583e-004
	6.807001361006649e-008
	-6.383536127704659e-003
	1.361400274695335e-004
	6.806980888303844e-008
	9.968082319869638e-004
	1.361396177895570e-004
	-6.383536026066850e-003
	9.320340666363336e+000
	9.320340627283485e+000
	-6.383536125269984e-003
	1.361400271012077e-004
	1.361396204880381e-004
	-9.321950100821482e+000
	-6.383536080863166e-003
	8.351152627053575e+001
2		1.376000505581127e-009
	2.468336760173089e+002
	2.883142133678879e+002
	3.166333264325440e+000
	5.524795372984141e+001
	2.494813028199542e+001
	2.400000000000000e+001
	-9.481302819954198e-001
	3.166323982901533e+000
	2.468336852987329e+002
	2.500000000000000e+002
	2.568006853442155e+002
	2.568336852987329e+002
	6.982590525722689e-004
	8.195896322726881e-010
	8.203944256954228e-010
	3.167022243214607e+000
	3.166323982900391e+000
	9.967009327501982e+000
	1.000000928224422e+001
	9.282244303216346e-006
	2.568336852987329e+002
	3.166323982900392e+000
	8.195906041710176e-010
	1.000000928224418e+001
	9.282244303216181e+000
	5.603290943982887e-003
	-9.287847594160164e+000
	8.203963169965594e-004
	-1.397218888263787e-004
	-6.806744281701806e-004
	8.203941795205301e-004
	-1.397214725755498e-004
	-6.806727069449802e-004
	9.282244303215880e+000
	5.603290899156772e-003
	-9.287847594115036e+000
	0.000000000000000e+000
	2.398226449429330e-006
	-9.281423906290002e+000
	-4.020803590018576e-014
	9.718982676843495e-016
	9.719012361623128e-016
	-4.020803465443317e-014
	-2.495813028199541e-011
	-2.495813028199541e-011
	8.315934193089925e+001
	8.315934193088378e+001
	8.315934432917497e+001
	-9.281423906291556e+000
	9.281423906289065e+000
	-4.085620730620576e-014
	1.332267629550188e-015
	9.718983294397180e-016
	-5.684341886080802e-014
	-9.282244303216347e+000
	-8.203944256954228e-004
	9.967000045257679e-004
	6.982603130740727e-008
	-6.599990948447144e-003
	1.396520628432541e-004
	6.982582321778433e-008
	9.967000045482592e-004
	1.396516465965274e-004
	-6.599990903487197e-003
	9.281423956508661e+000
	9.281423906770669e+000
	-6.599990948890522e-003
	1.396520626918887e-004
	1.396516377769377e-004
	-9.283064721066126e+000
	-6.599990724005002e-003
	8.315934193086191e+001
3		3.210667846360480e-009
	2.468608978419012e+002
	2.899873897033883e+002
	3.139111358426586e+000
	5.692520892397211e+001
	2.494790386248648e+001
	2.400000000000000e+001
	-9.479038624864815e-001
	3.139102157105441e+000
	2.468609070432224e+002
	2.500000000000000e+002
	2.568257393782665e+002
	2.568609070432224e+002
	7.331750952397862e-004
	8.530200018563861e-010
	8.524041846656164e-010
	3.139835333541250e+000
	3.139102157104524e+000
	9.964841536820543e+000
	1.000000920217360e+001
	9.202173553233770e-006
	2.568609070432224e+002
	3.139102157104525e+000
	8.530210225488378e-010
	1.000000920217356e+001
	9.202173553233855e+000
	6.037049837177544e-003
	-9.208210603071033e+000
	8.524068231623895e-004
	-1.467086048502185e-004
	-7.056982183121709e-004
	8.524039372986645e-004
	-1.467081658793488e-004
	-7.056957714193157e-004
	9.202173560898928e+000
	6.037049757892347e-003
	-9.208210610656819e+000
	0.000000000000000e+000
	1.264519624788463e-006
	-9.201321145319298e+000
	-4.260019705846401e-014
	1.020692467280278e-015
	1.020695519251834e-015
	-4.260019689268295e-014
	-2.495790386248648e-011
	-2.495790386248649e-011
	8.243454942398421e+001
	8.243454942395374e+001
	8.243455068851313e+001
	-9.201321145317888e+000
	9.201321145319801e+000
	-4.440892098500626e-014
	8.881784197001252e-016
	1.020692451703402e-015
	-5.684341886080802e-014
	-9.202173553233770e+000
	-8.524041846656164e-004
	9.964832334646990e-004
	7.331764358098347e-008
	-7.033533070611143e-003
	1.466352873452870e-004
	7.331742428356016e-008
	9.964832335044123e-004
	1.466348484439569e-004
	-7.033532991181347e-003
	9.201321176988131e+000
	9.201321145901886e+000
	-7.033533073167675e-003
	1.466352873796328e-004
	1.466348506779724e-004
	-9.203025962391621e+000
	-7.033533043008200e-003
	8.243454942392323e+001
4		6.836680534885796e-009
	2.469176952953667e+002
	2.932456205672791e+002
	3.082313742050404e+000
	6.019206186354570e+001
	2.494742521005645e+001
	2.400000000000000e+001
	-9.474252100564500e-001
	3.082304707823394e+000
	2.469177043295937e+002
	2.500000000000000e+002
	2.568782482680798e+002
	2.569177043295937e+002
	8.012448366539784e-004
	9.134622711015616e-010
	9.134788741745098e-010
	3.083105954099662e+000
	3.082304707823450e+000
	9.960552973890572e+000
	1.000000903514052e+001
	9.035140491376995e-006
	2.569177043295936e+002
	3.082304707823451e+000
	9.134633869733647e-010
	1.000000903514047e+001
	9.035140491376854e+000
	6.895157856160255e-003
	-9.042035649233014e+000
	9.134808361556052e-004
	-1.603293798839411e-004
	-7.531514562716641e-004
	9.134786269627667e-004
	-1.603289090707192e-004
	-7.531497178920475e-004
	9.035140481703810e+000
	6.895157909213927e-003
	-9.042035639613022e+000
	-2.910383045673370e-011
	-1.017670656300318e-006
	-9.034227010684106e+000
	-4.728086077508839e-014
	1.115871710033137e-015
	1.115875096171070e-015
	-4.728085922966795e-014
	-2.495742521005637e-011
	-2.495742521005637e-011
	8.092305847268563e+001
	8.092305847268244e+001
	8.092305745524547e+001
	-9.034227010705463e+000
	9.034227010682644e+000
	-4.796163466380676e-014
	8.881784197001252e-016
	1.115871803081371e-015
	-5.684341886080802e-014
	-9.035140491376994e+000
	-9.134788741745098e-004
	9.960543938750080e-004
	8.012462762678751e-008
	-7.891212249989010e-003
	1.602492552422952e-004
	8.012439231751044e-008
	9.960543938486097e-004
	1.602487846383415e-004
	-7.891212302774875e-003
	9.034227019810714e+000
	9.034227010484841e+000
	-7.891212250365598e-003
	1.602492554793650e-004
	1.602487713261087e-004
	-9.036053998570083e+000
	-7.891211965223466e-003
	8.092305847266012e+001
5		1.083668053488779e-008
	2.469848844660563e+002
	2.967611514787895e+002
	3.015124358003837e+000
	6.371799537782387e+001
	2.494684766958211e+001
	2.400000000000000e+001
	-9.468476695821111e-001
	3.015115521385835e+000
	2.469848933026743e+002
	2.500000000000000e+002
	2.569407131939848e+002
	2.569848933026743e+002
	8.748418997210558e-004
	9.803785630535522e-010
	9.800293305501331e-010
	3.015990364976246e+000
	3.015115521385583e+000
	9.955828726817353e+000
	1.000000883759801e+001
	8.837598035811733e-006
	2.569848933026743e+002
	3.015115521385583e+000
	9.803797819137319e-010
	1.000000883759796e+001
	8.837598035811721e+000
	7.840440167265799e-003
	-8.845438475978986e+000
	9.800329144500134e-004
	-1.750562024869257e-004
	-8.049767119630878e-004
	9.800290842994202e-004
	-1.750556679483265e-004
	-8.049734163510937e-004
	8.837598081327011e+000
	7.840439748909316e-003
	-8.845438521075920e+000
	-1.455191522836685e-011
	-3.638162589969518e-006
	-8.836618002098874e+000
	-5.236802608087126e-014
	1.218860286823034e-015
	1.218863919901803e-015
	-5.236802594559650e-014
	-2.495684766958215e-011
	-2.495684766958215e-011
	7.913614572687629e+001
	7.913614572686947e+001
	7.913614208847638e+001
	-8.836618002069526e+000
	8.836618002098012e+000
	-5.329070518200751e-014
	8.881784197001252e-016
	1.218860179708721e-015
	-5.684341886080802e-014
	-8.837598035811732e+000
	-9.800293305501332e-004
	9.955819889219317e-004
	8.748435904109009e-008
	-8.836022156132018e-003
	1.749687181327175e-004
	8.748409196917252e-008
	9.955819891310455e-004
	1.749681838684986e-004
	-8.836021737909051e-003
	8.836618007990182e+000
	8.836618002217023e+000
	-8.836022156739176e-003
	1.749687181922900e-004
	1.749681991529031e-004
	-8.838578072673840e+000
	-8.836022131436097e-003
	7.913614572684942e+001
6		1.483668053488979e-008
	2.470567086928958e+002
	3.001888786366031e+002
	2.943299933675597e+000
	6.715709859672654e+001
	2.494621603490790e+001
	2.400000000000000e+001
	-9.462160349078946e-001
	2.943291308247142e+000
	2.470567173183243e+002
	2.500000000000000e+002
	2.570078371881286e+002
	2.570567173183242e+002
	9.467423833912638e-004
	1.043880461237823e-009
	1.043912307607805e-009
	2.944238052342921e+000
	2.943291308249805e+000
	9.951128496492615e+000
	1.000000862647238e+001
	8.626472368080437e-006
	2.570567173183241e+002
	2.943291308249806e+000
	1.043881780793141e-009
	1.000000862647232e+001
	8.626472368080330e+000
	8.780914009011487e-003
	-8.635253282089343e+000
	1.043913828092255e-003
	-1.894434930675042e-004
	-8.544703350247512e-004
	1.043912059474587e-003
	-1.894429420703145e-004
	-8.544691174042721e-004
	8.626472359734382e+000
	8.780914052024842e-003
	-8.635253273786407e+000
	-1.455191522836685e-011
	-6.372593575387775e-006
	-8.625428453896518e+000
	-5.736914137708775e-014
	1.319555236284915e-015
	1.319559179060111e-015
	-5.736914001445507e-014
	-2.495621603490777e-011
	-2.495621603490777e-011
	7.722700863242926e+001
	7.722700863242426e+001
	7.722700226004166e+001
	-8.625428453915989e+000
	8.625428453895665e+000
	-5.861977570020827e-014
	1.332267629550188e-015
	1.319555317925560e-015
	-1.136868377216160e-013
	-8.626472368080437e+000
	-1.043912307607805e-003
	9.951119870020247e-004
	9.467440957786623e-008
	-9.776025995952864e-003
	1.893488186231807e-004
	9.467413394789563e-008
	9.951119869804387e-004
	1.893482679021605e-004
	-9.776026039116915e-003
	8.625428449704486e+000
	8.625428454589468e+000
	-9.776025995821058e-003
	1.893488190604414e-004
	1.893482562240433e-004
	-8.627516305766790e+000
	-9.776025738343828e-003
	7.722700863239784e+001
7		1.883668053489178e-008
	2.471330349314694e+002
	3.035235066911164e+002
	2.866973473759527e+000
	7.050412164479424e+001
	2.494552778441816e+001
	2.400000000000000e+001
	-9.455277844181663e-001
	2.866965072712500e+000
	2.471330433325165e+002
	2.500000000000000e+002
	2.570795034840797e+002
	2.571330433325164e+002
	1.016850318175675e-003
	1.106915017978771e-009
	1.106664455528277e-009
	2.867981924903570e+000
	2.866965072712760e+000
	9.946468554338134e+000
	1.000000840215374e+001
	8.402153695353706e-006
	2.571330433325164e+002
	2.866965072712762e+000
	1.106916435795980e-009
	1.000000840215368e+001
	8.402153695353723e+000
	9.713323547958059e-003
	-8.411867018901681e+000
	1.106668706112458e-003
	-2.034721233925548e-004
	-9.031965827199033e-004
	1.106664207911138e-003
	-2.034715271930262e-004
	-9.031926807181119e-004
	8.402153693770815e+000
	9.713323672331317e-003
	-8.411867017443147e+000
	-1.455191522836685e-011
	-9.237301872078163e-006
	-8.401047025997627e+000
	-6.227796049379892e-014
	1.417817217612572e-015
	1.417821387396358e-015
	-6.227796131486950e-014
	-2.495552778441810e-011
	-2.495552778441810e-011
	7.519914518104633e+001
	7.519914518103815e+001
	7.519913594373749e+001
	-8.401047025993552e+000
	8.401047025996343e+000
	-6.217248937900877e-014
	1.332267629550188e-015
	1.417817208624418e-015
	-5.684341886080802e-014
	-8.402153695353706e+000
	-1.106664455528277e-003
	9.946460152184440e-004
	1.016852191070061e-007
	-1.070796956312172e-002
	2.033704381619650e-004
	1.016849211511220e-007
	9.946460151563287e-004
	2.033698422521314e-004
	-1.070796968733703e-002
	8.401047040251797e+000
	8.401047026485031e+000
	-1.070796956278031e-002
	2.033704382856331e-004
	2.033698435054215e-004
	-8.403260359315368e+000
	-1.070796971932017e-002
	7.519914518101628e+001
8		2.283668053489377e-008
	2.472137224336051e+002
	3.067599017751192e+002
	2.786285715729081e+000
	7.375398273695512e+001
	2.494478001902262e+001
	2.400000000000000e+001
	-9.447800190226308e-001
	2.786277551846480e+000
	2.472137305974877e+002
	2.500000000000000e+002
	2.571555863379053e+002
	2.572137305974877e+002
	1.085037187221214e-003
	1.166615748449118e-009
	1.166533634561925e-009
	2.787362591138848e+000
	2.786277551844952e+000
	9.941863903242222e+000
	1.000000816504912e+001
	8.165049137945473e-006
	2.572137305974877e+002
	2.786277551844954e+000
	1.166617261908994e-009
	1.000000816504905e+001
	8.165049137945429e+000
	1.063466678763225e-002
	-8.175683804733062e+000
	1.166536131060215e-003
	-2.171163626931160e-004
	-9.494197683670990e-004
	1.166533387978343e-003
	-2.171157076824466e-004
	-9.494176802958959e-004
	8.165049180091373e+000
	1.063466634253543e-002
	-8.175683846433909e+000
	-1.455191522836685e-011
	-1.225201385179897e-005
	-8.163882601288265e+000
	-6.708815324219859e-014
	1.513459995351748e-015
	1.513464467584359e-015
	-6.708815320679794e-014
	-2.495478001902264e-011
	-2.495478001902264e-011
	7.305623537624479e+001
	7.305623537624979e+001
	7.305622312398648e+001
	-8.163882601257694e+000
	8.163882601286954e+000
	-6.572520305780927e-014
	1.776356839400251e-015
	1.513459876374585e-015
	0.000000000000000e+000
	-8.165049137945474e+000
	-1.166533634561925e-003
	9.941855738193083e-004
	1.085039292368251e-007
	-1.162885236137896e-002
	2.170078587791835e-004
	1.085036020687579e-007
	9.941855740417595e-004
	2.170072041210930e-004
	-1.162885191647547e-002
	8.163882625922270e+000
	8.163882601497363e+000
	-1.162885236059630e-002
	2.170078585491658e-004
	2.170072211102913e-004
	-8.166215669907388e+000
	-1.162885235373812e-002
	7.305623537623521e+001
9		2.683668053489577e-008
	2.472986243683322e+002
	3.098930964585582e+002
	2.701383532970581e+000
	7.690177457372990e+001
	2.494396940267941e+001
	2.400000000000000e+001
	-9.439694026794048e-001
	2.701375618606992e+000
	2.472986322826958e+002
	2.500000000000000e+002
	2.572359526015539e+002
	2.572986322826959e+002
	1.151214168752204e-003
	1.225017080830337e-009
	1.225097375978393e-009
	2.702526834992169e+000
	2.701375618607240e+000
	9.937328232763051e+000
	1.000000791558870e+001
	7.915588690988379e-006
	2.572986322826957e+002
	2.701375618607241e+000
	1.225018687183003e-009
	1.000000791558863e+001
	7.915588690988325e+000
	1.154220453348851e-002
	-7.927130895521813e+000
	1.225101404429481e-003
	-2.303583986650159e-004
	-9.947430057644651e-004
	1.225097129186552e-003
	-2.303577100315238e-004
	-9.947394191550283e-004
	7.915588736737091e+000
	1.154220419654975e-002
	-7.927130940933641e+000
	-1.455191522836685e-011
	-1.543929278413625e-005
	-7.914363589102095e+000
	-7.179343536871767e-014
	1.606352720665666e-015
	1.606357498064709e-015
	-7.179343469268954e-014
	-2.495396940267933e-011
	-2.495396940267933e-011
	7.080213496445458e+001
	7.080213496444912e+001
	7.080211952508073e+001
	-7.914363589090386e+000
	7.914363589101675e+000
	-7.283063041541027e-014
	1.332267629550188e-015
	1.606352665309970e-015
	-1.136868377216160e-013
	-7.915588690988378e+000
	-1.225097375978393e-003
	9.937320317174360e-004
	1.151216385177456e-007
	-1.253593656513061e-002
	2.302432769859308e-004
	1.151212943654828e-007
	9.937320318858071e-004
	2.302425887470246e-004
	-1.253593622839162e-002
	7.914363578720440e+000
	7.914363588934492e+000
	-1.253593656433960e-002
	2.302432770820311e-004
	2.302425966476821e-004
	-7.916813816521881e+000
	-1.253593643361577e-002
	7.080213496442499e+001
10		2.699999999999822e-008
	2.473021784556886e+002
	3.100187776394590e+002
	2.697829447273313e+000
	7.702807679007256e+001
	2.494393491107236e+001
	2.400000000000000e+001
	-9.439349110723575e-001
	2.697821543355220e+000
	2.473021863596066e+002
	2.500000000000000e+002
	2.572393231623997e+002
	2.573021863596066e+002
	1.153863745464746e-003
	1.228357637828026e-009
	1.226784830457094e-009
	2.698975409149374e+000
	2.697821543354884e+000
	9.937144708168788e+000
	1.000000790514492e+001
	7.905144872279103e-006
	2.573021863596065e+002
	2.697821543354885e+000
	1.228359247901331e-009
	1.000000790514485e+001
	7.905144872279344e+000
	1.157892571484611e-002
	-7.916723797994190e+000
	1.226779391412982e-003
	-2.308885448542289e-004
	-9.958908465587534e-004
	1.226784582475587e-003
	-2.308878888980653e-004
	-9.958966935775216e-004
	7.905144826401353e+000
	1.157892576092347e-002
	-7.916723752162277e+000
	0.000000000000000e+000
	-1.557690968878589e-005
	-7.903918092673848e+000
	-7.198321527776856e-014
	1.610073286071259e-015
	1.610077909486763e-015
	-7.198321534299855e-014
	-2.495393491107236e-011
	-2.495393491107236e-011
	7.070778134802822e+001
	7.070778134802504e+001
	7.070776577114036e+001
	-7.903918092671747e+000
	7.903918092671951e+000
	-7.105427357601002e-014
	1.332267629550188e-015
	1.610073304886875e-015
	-1.136868377216160e-013
	-7.905144872279103e+000
	-1.226784830457094e-003
	9.937136803023915e-004
	1.153865794153663e-007
	-1.257263939522631e-002
	2.307731588979678e-004
	1.153862518679916e-007
	9.937136802793049e-004
	2.307725034214217e-004
	-1.257263944138458e-002
	7.903918060492288e+000
	7.903918092466711e+000
	-1.257263939599795e-002
	2.307731592319563e-004
	2.307725007324897e-004
	-7.906371612934890e+000
	-1.257263940860991e-002
	7.070778134799818e+001
11		2.732663893020311e-008
	2.473093074000081e+002
	3.102695975515446e+002
	2.690700503010784e+000
	7.728014496440552e+001
	2.494386559337213e+001
	2.400000000000000e+001
	-9.438655933721334e-001
	2.690692620043119e+000
	2.473093152829758e+002
	2.500000000000000e+002
	2.572460853887518e+002
	2.573093152829758e+002
	1.159174994222272e-003
	1.233629642882761e-009
	1.232221384123726e-009
	2.691851797059528e+000
	2.690692620044879e+000
	9.936777993510455e+000
	1.000000788419993e+001
	7.884199892352841e-006
	2.573093152829757e+002
	2.690692620044881e+000
	1.233631260414662e-009
	1.000000788419986e+001
	7.884199892352745e+000
	1.165230112701114e-002
	-7.895852193479756e+000
	1.232226253302048e-003
	-2.319513205601380e-004
	-1.000274932741910e-003
	1.232221137942929e-003
	-2.319506700318429e-004
	-1.000270467911086e-003
	7.884199839656443e+000
	1.165230183500164e-002
	-7.895852141491444e+000
	0.000000000000000e+000
	-1.585171821139042e-005
	-7.882967665829710e+000
	-7.236229668147954e-014
	1.617531787043522e-015
	1.617536470844642e-015
	-7.236229901557081e-014
	-2.495386559337213e-011
	-2.495386559337213e-011
	7.051853921166139e+001
	7.051853921166139e+001
	7.051852335998521e+001
	-7.882967665830447e+000
	7.882967665828835e+000
	-7.283063041541027e-014
	1.332267629550188e-015
	1.617531901273603e-015
	-1.136868377216160e-013
	-7.884199892352841e+000
	-1.232221384123726e-003
	9.936770109310563e-004
	1.159177016409885e-007
	-1.264597813789514e-002
	2.318354029298142e-004
	1.159173762000888e-007
	9.936770105776049e-004
	2.318347521185258e-004
	-1.264597884479599e-002
	7.882967651084982e+000
	7.882967665739926e+000
	-1.264597813778501e-002
	2.318354028896276e-004
	2.318347358383399e-004
	-7.885432107195129e+000
	-1.264597858945972e-002
	7.051853921162453e+001
12		2.797991679061291e-008
	2.473236463369344e+002
	3.107690605566035e+002
	2.676361516366607e+000
	7.778212854563903e+001
	2.494372561225358e+001
	2.400000000000000e+001
	-9.437256122535793e-001
	2.676353675536593e+000
	2.473236541777644e+002
	2.500000000000000e+002
	2.572596925177244e+002
	2.573236541777644e+002
	1.169735515263748e-003
	1.241963698550563e-009
	1.240732844600690e-009
	2.677523413148387e+000
	2.676353675536197e+000
	9.936046184288079e+000
	1.000000784207072e+001
	7.842070750271117e-006
	2.573236541777644e+002
	2.676353675536199e+000
	1.241965330913937e-009
	1.000000784207065e+001
	7.842070750270868e+000
	1.179872772242126e-002
	-7.853869477993290e+000
	1.240736093639434e-003
	-2.340644960934537e-004
	-1.006671597545980e-003
	1.240732598525938e-003
	-2.340638278872141e-004
	-1.006668770638724e-003
	7.842070722926526e+000
	1.179872817372829e-002
	-7.853869451100255e+000
	0.000000000000000e+000
	-1.640133039559899e-005
	-7.840830014346921e+000
	-7.311826563571101e-014
	1.632363441187406e-015
	1.632368063257943e-015
	-7.311826889938939e-014
	-2.495372561225358e-011
	-2.495372561225358e-011
	7.013792376990477e+001
	7.013792376990841e+001
	7.013790736859104e+001
	-7.840830014345578e+000
	7.840830014346521e+000
	-7.283063041541027e-014
	1.776356839400251e-015
	1.632363373940566e-015
	-5.684341886080802e-014
	-7.842070750271117e+000
	-1.240732844600690e-003
	9.936038342217330e-004
	1.169737611793398e-007
	-1.279233155652833e-002
	2.339475224379051e-004
	1.169734274530904e-007
	9.936038339959992e-004
	2.339468546600100e-004
	-1.279233200799581e-002
	7.840830022587397e+000
	7.840830013705613e+000
	-1.279233155692339e-002
	2.339475224288085e-004
	2.339468642531054e-004
	-7.843311435802434e+000
	-1.279233218901142e-002
	7.013792376988474e+001
13		2.928647251143249e-008
	2.473526446079738e+002
	3.117592040944115e+002
	2.647363162592275e+000
	7.877741138917621e+001
	2.494344020357568e+001
	2.400000000000000e+001
	-9.434402035756716e-001
	2.647355406977200e+000
	2.473526523635889e+002
	2.500000000000000e+002
	2.572872340769743e+002
	2.573526523635889e+002
	1.190703184579876e-003
	1.260034881989114e-009
	1.259760891582092e-009
	2.648546112293237e+000
	2.647355406976790e+000
	9.934589472781006e+000
	1.000000775687484e+001
	7.756874840289768e-006
	2.573526523635888e+002
	2.647355406976791e+000
	1.260036543805200e-009
	1.000000775687476e+001
	7.756874840289676e+000
	1.209019864723495e-002
	-7.768965038936911e+000
	1.259764313894523e-003
	-2.382601337725647e-004
	-1.021504180121959e-003
	1.259760645881748e-003
	-2.382594551291981e-004
	-1.021501190752550e-003
	7.756874793065507e+000
	1.209019915180784e-002
	-7.768964992217316e+000
	0.000000000000000e+000
	-1.750824037261012e-005
	-7.755615075456717e+000
	-7.462107624759861e-014
	1.661815926651166e-015
	1.661820848868811e-015
	-7.462107627085369e-014
	-2.495344020357562e-011
	-2.495344020357563e-011
	6.936823621602161e+001
	6.936823621600661e+001
	6.936821870791266e+001
	-7.755615075469307e+000
	7.755615075456895e+000
	-7.460698725481052e-014
	1.332267629550188e-015
	1.661816085945137e-015
	-5.684341886080802e-014
	-7.756874840289768e+000
	-1.259760891582092e-003
	9.934581715906167e-004
	1.190705316036933e-007
	-1.308365681876609e-002
	2.381410632893655e-004
	1.190701924818985e-007
	9.934581713385428e-004
	2.381403849089988e-004
	-1.308365732290895e-002
	7.755615087035039e+000
	7.755615075044631e+000
	-1.308365681845469e-002
	2.381410629733369e-004
	2.381403622221097e-004
	-7.758134614294022e+000
	-1.308365682294038e-002
	6.936823621598794e+001
14		2.999999999999124e-008
	2.473686599763971e+002
	3.122949553922821e+002
	2.631347742379859e+000
	7.931602529079690e+001
	2.494328122445032e+001
	2.400000000000000e+001
	-9.432812244503187e-001
	2.631340033827143e+000
	2.473686676849499e+002
	2.500000000000000e+002
	2.573024579064738e+002
	2.573686676849499e+002
	1.202045235132074e-003
	1.269221172606194e-009
	1.268916809072500e-009
	2.632542081273137e+000
	2.631340033826101e+000
	9.933797933057603e+000
	1.000000770982164e+001
	7.709821636773731e-006
	2.573686676849498e+002
	2.631340033826103e+000
	1.269222850357017e-009
	1.000000770982156e+001
	7.709821636773691e+000
	1.224857633054493e-002
	-7.722070213104237e+000
	1.268921092987734e-003
	-2.405296941172159e-004
	-1.028391398870518e-003
	1.268916560119322e-003
	-2.405289975503241e-004
	-1.028387562568998e-003
	7.709821621813165e+000
	1.224857667410845e-002
	-7.722070198487273e+000
	-1.164153218269348e-010
	-1.812193963957043e-005
	-7.708552715706901e+000
	-7.543659476805656e-014
	1.677750868317949e-015
	1.677755713531390e-015
	-7.543659717880044e-014
	-2.495328122445032e-011
	-2.495328122445032e-011
	6.894317150657162e+001
	6.894317150656843e+001
	6.894315338464129e+001
	-7.708552715704335e+000
	7.708552715706627e+000
	-7.638334409421077e-014
	1.332267629550188e-015
	1.677750822748212e-015
	-5.684341886080802e-014
	-7.709821636773731e+000
	-1.268916809072500e-003
	9.933790223235967e-004
	1.202047445993504e-007
	-1.324195535280666e-002
	2.404094894070674e-004
	1.202043966215265e-007
	9.933790221523908e-004
	2.404087931821803e-004
	-1.324195569521862e-002
	7.708552715257611e+000
	7.708552715701700e+000
	-1.324195535216344e-002
	2.404094893496191e-004
	2.404087996497014e-004
	-7.711090527248871e+000
	-1.324195582029677e-002
	6.894317150654294e+001
15		3.099999999999344e-008
	2.473913159150094e+002
	3.130398137851404e+002
	2.608691728478229e+000
	8.006496336608322e+001
	2.494305465729421e+001